version 2
run General-0-20171114-18:52:21-3899
attr configname General
attr datetime 20171114-18:52:21
attr experiment General
attr inifile securityTest.ini
attr iterationvars ""
attr iterationvars2 $repetition=0
attr measurement ""
attr network SN
attr processid 3899
attr repetition 0
attr replication #0
attr resultdir results
attr runnumber 0
attr seedset 42

vector 5  SN.node[0].Communication.MAC  "MAC Pickup Time"  ETV
vector 4  SN.node[0].Communication.MAC  Offset  ETV
vector 6  SN.node[0].Communication.MAC  "Frame IDs transmitted"  ETV
vector 9  SN.node[1].Communication.MAC  Offset  ETV
vector 11  SN.node[1].Communication.MAC  "Frame IDs transmitted"  ETV
vector 10  SN.node[1].Communication.MAC  "MAC Pickup Time"  ETV
vector 7  SN.node[1].Communication.Routing  "Timer adjusts"  ETV
vector 3  SN.node[0].Communication.MAC  "Timer Error"  ETV
3	28686	32.0004504888	13
3	28841	33.000464566575	13
3	28996	34.00047864435	13.333333333333
3	29151	35.000492722125	13.5
3	29306	36.0005067999	13.6
3	29461	37.000520877675	13.833333333333
3	29616	38.00053495545	13.857142857143
3	29771	39.000549033225	14
3	29926	40.000563111	14.111111111111
3	30081	41.000577188775	14.3
3	30236	42.00059126655	14.545454545455
3	30391	43.000605344325	14.75
3	30546	44.0006194221	15
3	30701	45.000633499875	15.142857142857
3	30873	46.00064757765	15.333333333333
3	31033	47.000661655425	15.5
3	31188	48.0006757332	15.705882352941
3	31343	49.000689810975	15.888888888889
3	31498	50.00070388875	16.052631578947
3	31653	51.000717966525	16.25
3	31808	52.0007320443	16.428571428571
3	31963	53.000746122075	16.636363636364
3	32118	54.00076019985	16.826086956522
3	32273	55.000774277625	17
3	32428	56.0007883554	17.2
3	32583	57.000802433175	17.384615384615
3	32738	58.00081651095	17.592592592593
3	32893	59.000830588725	17.75
3	33048	60.0008446665	17.931034482759
4	4710	30.073683364424	0.000463
4	13688	30.656510873152	0.00032
4	19725	31.377226978199	0.00032
4	22712	31.662237020421	0.000717
5	4710	30.073683364424	0.072839
5	22712	31.662237020421	0.285965
6	4731	30.075066103889	2701
6	13701	30.657749890594	3522
6	19738	31.378465995641	3136
6	22726	31.663873673461	1175
7	25698	31.808807701244	1.0000083768531
9	7708	30.223401312614	0.00032
9	10695	30.508411371175	0.001006
9	16732	31.229688791905	0.00045
9	25705	31.810048893138	0.00032
10	10695	30.508411371175	0.286645
10	16732	31.229688791905	0.007877
11	7721	30.22464034043	2701
11	10709	30.510336834402	3522
11	16746	31.23105782264	3136
11	25718	31.811287920954	1175
